/*--------------------------------*- C++ -*----------------------------------*\
| =========                 |                                                 |
| \\      /  F ield         | OpenFOAM: The Open Source CFD Toolbox           |
|  \\    /   O peration     | Version:  v2106                                 |
|   \\  /    A nd           | Website:  www.openfoam.com                      |
|    \\/     M anipulation  |                                                 |
\*---------------------------------------------------------------------------*/
FoamFile
{
    version     2.0;
    format      ascii;
    arch        "LSB;label=32;scalar=64";
    class       volScalarField;
    location    "0";
    object      bSS1;
}
// * * * * * * * * * * * * * * * * * * * * * * * * * * * * * * * * * * * * * //

dimensions      [0 2 -2 0 0 0 0];

internalField   nonuniform List<scalar> 
16
(
88
89
90
91
92
93
94
95
96
97
98
99
100
101
102
103
)
;

boundaryField
{
    movingWall
    {
        type            calculated;
        value           uniform 105;
    }
    fixedWalls
    {
        type            calculated;
        value           uniform 105;
    }
    frontAndBack
    {
        type            empty;
    }
}


// ************************************************************************* //
