/*--------------------------------*- C++ -*----------------------------------*\
| =========                 |                                                 |
| \\      /  F ield         | OpenFOAM: The Open Source CFD Toolbox           |
|  \\    /   O peration     | Version:  v2106                                 |
|   \\  /    A nd           | Website:  www.openfoam.com                      |
|    \\/     M anipulation  |                                                 |
\*---------------------------------------------------------------------------*/
FoamFile
{
    version     2.0;
    format      ascii;
    arch        "LSB;label=32;scalar=64";
    class       volScalarField;
    location    "0";
    object      bSS3;
}
// * * * * * * * * * * * * * * * * * * * * * * * * * * * * * * * * * * * * * //

dimensions      [0 4 -4 0 0 0 0];

internalField   nonuniform List<scalar> 
16
(
87
174
261
348
435
522
609
696
783
870
957
1044
1131
1218
1305
1392
)
;

boundaryField
{
    movingWall
    {
        type            calculated;
        value           uniform 1566;
    }
    fixedWalls
    {
        type            calculated;
        value           uniform 1566;
    }
    frontAndBack
    {
        type            empty;
    }
}


// ************************************************************************* //
