/*--------------------------------*- C++ -*----------------------------------*\
| =========                 |                                                 |
| \\      /  F ield         | OpenFOAM: The Open Source CFD Toolbox           |
|  \\    /   O peration     | Version:  v2106                                 |
|   \\  /    A nd           | Website:  www.openfoam.com                      |
|    \\/     M anipulation  |                                                 |
\*---------------------------------------------------------------------------*/
FoamFile
{
    version     2.0;
    format      ascii;
    arch        "LSB;label=32;scalar=64";
    class       volScalarField;
    location    "0";
    object      bSS4;
}
// * * * * * * * * * * * * * * * * * * * * * * * * * * * * * * * * * * * * * //

dimensions      [0 0 0 0 0 0 0];

internalField   nonuniform List<scalar> 
16
(
0.0114943
0.0229885
0.0344828
0.045977
0.0574713
0.0689655
0.0804598
0.091954
0.103448
0.114943
0.126437
0.137931
0.149425
0.16092
0.172414
0.183908
)
;

boundaryField
{
    movingWall
    {
        type            calculated;
        value           uniform 0.206897;
    }
    fixedWalls
    {
        type            calculated;
        value           uniform 0.206897;
    }
    frontAndBack
    {
        type            empty;
    }
}


// ************************************************************************* //
