/*--------------------------------*- C++ -*----------------------------------*\
| =========                 |                                                 |
| \\      /  F ield         | OpenFOAM: The Open Source CFD Toolbox           |
|  \\    /   O peration     | Version:  v2106                                 |
|   \\  /    A nd           | Website:  www.openfoam.com                      |
|    \\/     M anipulation  |                                                 |
\*---------------------------------------------------------------------------*/
FoamFile
{
    version     2.0;
    format      ascii;
    arch        "LSB;label=32;scalar=64";
    class       volTensorField;
    location    "0";
    object      bST1;
}
// * * * * * * * * * * * * * * * * * * * * * * * * * * * * * * * * * * * * * //

dimensions      [0 3 -3 0 0 0 0];

internalField   nonuniform List<tensor> 
16
(
(11 552 63 44 55 65 87 8 95)
(22 1104 126 88 110 130 174 16 190)
(33 1656 189 132 165 195 261 24 285)
(44 2208 252 176 220 260 348 32 380)
(55 2760 315 220 275 325 435 40 475)
(66 3312 378 264 330 390 522 48 570)
(77 3864 441 308 385 455 609 56 665)
(88 4416 504 352 440 520 696 64 760)
(99 4968 567 396 495 585 783 72 855)
(110 5520 630 440 550 650 870 80 950)
(121 6072 693 484 605 715 957 88 1045)
(132 6624 756 528 660 780 1044 96 1140)
(143 7176 819 572 715 845 1131 104 1235)
(154 7728 882 616 770 910 1218 112 1330)
(165 8280 945 660 825 975 1305 120 1425)
(176 8832 1008 704 880 1040 1392 128 1520)
)
;

boundaryField
{
    movingWall
    {
        type            calculated;
        value           uniform (198 9936 1134 792 990 1170 1566 144 1710);
    }
    fixedWalls
    {
        type            calculated;
        value           uniform (198 9936 1134 792 990 1170 1566 144 1710);
    }
    frontAndBack
    {
        type            empty;
    }
}


// ************************************************************************* //
