/*--------------------------------*- C++ -*----------------------------------*\
| =========                 |                                                 |
| \\      /  F ield         | OpenFOAM: The Open Source CFD Toolbox           |
|  \\    /   O peration     | Version:  v2106                                 |
|   \\  /    A nd           | Website:  www.openfoam.com                      |
|    \\/     M anipulation  |                                                 |
\*---------------------------------------------------------------------------*/
FoamFile
{
    version     2.0;
    format      ascii;
    arch        "LSB;label=32;scalar=64";
    class       volTensorField;
    location    "0";
    object      bTS1;
}
// * * * * * * * * * * * * * * * * * * * * * * * * * * * * * * * * * * * * * //

dimensions      [0 3 -3 0 0 0 0];

internalField   nonuniform List<tensor> 
16
(
(87 174 87 348 696 609 348 696 609)
(174 348 435 1131 2262 174 870 1740 174)
(261 522 696 696 1392 348 435 870 696)
(348 696 609 696 1392 348 870 1740 174)
(435 870 696 87 174 87 435 870 696)
(522 1044 783 870 1740 174 696 1392 348)
(609 1218 435 435 870 696 1131 2262 174)
(696 1392 348 696 1392 348 870 1740 174)
(783 1566 174 870 1740 174 435 870 696)
(870 1740 174 696 1392 348 87 174 87)
(957 1914 174 435 870 696 1131 2262 174)
(1044 2088 87 87 174 87 1131 2262 174)
(1131 2262 174 783 1566 174 1131 2262 174)
(1218 2436 261 87 174 87 696 1392 348)
(1305 2610 348 783 1566 174 435 870 696)
(2784 5568 609 696 1392 348 87 174 87)
)
;

boundaryField
{
    movingWall
    {
        type            calculated;
        value           uniform (87 174 87 348 696 609 348 696 609);
    }
    fixedWalls
    {
        type            calculated;
        value           uniform (87 174 87 348 696 609 348 696 609);
    }
    frontAndBack
    {
        type            empty;
    }
}


// ************************************************************************* //
