/*--------------------------------*- C++ -*----------------------------------*\
| =========                 |                                                 |
| \\      /  F ield         | OpenFOAM: The Open Source CFD Toolbox           |
|  \\    /   O peration     | Version:  v2106                                 |
|   \\  /    A nd           | Website:  www.openfoam.com                      |
|    \\/     M anipulation  |                                                 |
\*---------------------------------------------------------------------------*/
FoamFile
{
    version     2.0;
    format      ascii;
    arch        "LSB;label=32;scalar=64";
    class       volTensorField;
    location    "0";
    object      bTT1;
}
// * * * * * * * * * * * * * * * * * * * * * * * * * * * * * * * * * * * * * //

dimensions      [0 1 -1 0 0 0 0];

internalField   nonuniform List<tensor> 
16
(
(12 554 64 48 63 72 91 16 102)
(13 556 68 57 81 67 97 28 97)
(14 558 71 52 71 69 92 18 103)
(15 560 70 52 71 69 97 28 97)
(16 562 71 45 57 66 92 18 103)
(17 564 72 54 75 67 95 24 99)
(18 566 68 49 65 73 100 34 97)
(19 568 67 52 71 69 97 28 97)
(20 570 65 54 75 67 92 18 103)
(21 572 65 52 71 69 88 10 96)
(22 574 65 49 65 73 100 34 97)
(23 576 64 45 57 66 100 34 97)
(24 578 65 53 73 67 100 34 97)
(25 580 66 45 57 66 95 24 99)
(26 582 67 53 73 67 92 18 103)
(43 616 70 52 71 69 88 10 96)
)
;

boundaryField
{
    movingWall
    {
        type            calculated;
        value           uniform (12 554 64 48 63 72 91 16 102);
    }
    fixedWalls
    {
        type            calculated;
        value           uniform (12 554 64 48 63 72 91 16 102);
    }
    frontAndBack
    {
        type            empty;
    }
}


// ************************************************************************* //
