/*--------------------------------*- C++ -*----------------------------------*\
| =========                 |                                                 |
| \\      /  F ield         | OpenFOAM: The Open Source CFD Toolbox           |
|  \\    /   O peration     | Version:  v2106                                 |
|   \\  /    A nd           | Website:  www.openfoam.com                      |
|    \\/     M anipulation  |                                                 |
\*---------------------------------------------------------------------------*/
FoamFile
{
    version     2.0;
    format      ascii;
    arch        "LSB;label=32;scalar=64";
    class       volTensorField;
    location    "0";
    object      bTT2;
}
// * * * * * * * * * * * * * * * * * * * * * * * * * * * * * * * * * * * * * //

dimensions      [0 1 -1 0 0 0 0];

internalField   nonuniform List<tensor> 
16
(
(-10 -550 -62 -40 -47 -58 -83 0 -88)
(-9 -548 -58 -31 -29 -63 -77 12 -93)
(-8 -546 -55 -36 -39 -61 -82 2 -87)
(-7 -544 -56 -36 -39 -61 -77 12 -93)
(-6 -542 -55 -43 -53 -64 -82 2 -87)
(-5 -540 -54 -34 -35 -63 -79 8 -91)
(-4 -538 -58 -39 -45 -57 -74 18 -93)
(-3 -536 -59 -36 -39 -61 -77 12 -93)
(-2 -534 -61 -34 -35 -63 -82 2 -87)
(-1 -532 -61 -36 -39 -61 -86 -6 -94)
(0 -530 -61 -39 -45 -57 -74 18 -93)
(1 -528 -62 -43 -53 -64 -74 18 -93)
(2 -526 -61 -35 -37 -63 -74 18 -93)
(3 -524 -60 -43 -53 -64 -79 8 -91)
(4 -522 -59 -35 -37 -63 -82 2 -87)
(21 -488 -56 -36 -39 -61 -86 -6 -94)
)
;

boundaryField
{
    movingWall
    {
        type            calculated;
        value           uniform (-10 -550 -62 -40 -47 -58 -83 0 -88);
    }
    fixedWalls
    {
        type            calculated;
        value           uniform (-10 -550 -62 -40 -47 -58 -83 0 -88);
    }
    frontAndBack
    {
        type            empty;
    }
}


// ************************************************************************* //
