/*--------------------------------*- C++ -*----------------------------------*\
| =========                 |                                                 |
| \\      /  F ield         | OpenFOAM: The Open Source CFD Toolbox           |
|  \\    /   O peration     | Version:  v2106                                 |
|   \\  /    A nd           | Website:  www.openfoam.com                      |
|    \\/     M anipulation  |                                                 |
\*---------------------------------------------------------------------------*/
FoamFile
{
    version     2.0;
    format      ascii;
    arch        "LSB;label=32;scalar=64";
    class       volScalarField;
    location    "0";
    object      bTT3;
}
// * * * * * * * * * * * * * * * * * * * * * * * * * * * * * * * * * * * * * //

dimensions      [0 2 -2 0 0 0 0];

internalField   nonuniform List<scalar> 
16
(
3326
5897
6616
7613
7573
10131
10939
11884
13106
12966
15210
15191
17666
17222
19768
37811
)
;

boundaryField
{
    movingWall
    {
        type            calculated;
        value           uniform 3326;
    }
    fixedWalls
    {
        type            calculated;
        value           uniform 3326;
    }
    frontAndBack
    {
        type            empty;
    }
}


// ************************************************************************* //
