/*--------------------------------*- C++ -*----------------------------------*\
| =========                 |                                                 |
| \\      /  F ield         | OpenFOAM: The Open Source CFD Toolbox           |
|  \\    /   O peration     | Version:  v2106                                 |
|   \\  /    A nd           | Website:  www.openfoam.com                      |
|    \\/     M anipulation  |                                                 |
\*---------------------------------------------------------------------------*/
FoamFile
{
    version     2.0;
    format      ascii;
    arch        "LSB;label=32;scalar=64";
    class       volTensorField;
    location    "0";
    object      bTT4;
}
// * * * * * * * * * * * * * * * * * * * * * * * * * * * * * * * * * * * * * //

dimensions      [0 2 -2 0 0 0 0];

internalField   nonuniform List<tensor> 
16
(
(186 670 288 1005 2704 1437 1005 2704 1437)
(633 1364 861 1461 8622 2699 1164 6636 2120)
(993 2050 1339 1140 5328 1924 1191 3374 1725)
(1005 2704 1437 1140 5328 1924 1164 6636 2120)
(1191 3374 1725 186 670 288 1191 3374 1725)
(1377 4044 2013 1164 6636 2120 1140 5328 1924)
(1128 4674 1826 1191 3374 1725 1461 8622 2699)
(1140 5328 1924 1140 5328 1924 1164 6636 2120)
(1065 5974 1927 1164 6636 2120 1191 3374 1725)
(1164 6636 2120 1140 5328 1924 186 670 288)
(1263 7298 2313 1191 3374 1725 1461 8622 2699)
(1275 7952 2411 186 670 288 1461 8622 2699)
(1461 8622 2699 1065 5974 1927 1461 8622 2699)
(1647 9292 2987 186 670 288 1140 5328 1924)
(1833 9962 3275 1065 5974 1927 1191 3374 1725)
(3777 21240 6841 1140 5328 1924 186 670 288)
)
;

boundaryField
{
    movingWall
    {
        type            calculated;
        value           uniform (186 670 288 1005 2704 1437 1005 2704 1437);
    }
    fixedWalls
    {
        type            calculated;
        value           uniform (186 670 288 1005 2704 1437 1005 2704 1437);
    }
    frontAndBack
    {
        type            empty;
    }
}


// ************************************************************************* //
