/*--------------------------------*- C++ -*----------------------------------*\
| =========                 |                                                 |
| \\      /  F ield         | OpenFOAM: The Open Source CFD Toolbox           |
|  \\    /   O peration     | Version:  v2106                                 |
|   \\  /    A nd           | Website:  www.openfoam.com                      |
|    \\/     M anipulation  |                                                 |
\*---------------------------------------------------------------------------*/
FoamFile
{
    version     2.0;
    format      ascii;
    arch        "LSB;label=32;scalar=64";
    class       volVectorField;
    location    "0";
    object      bVS2;
}
// * * * * * * * * * * * * * * * * * * * * * * * * * * * * * * * * * * * * * //

dimensions      [0 -1 1 0 0 0 0];

internalField   nonuniform List<vector> 
16
(
(0.0114943 0.0229885 0.0114943)
(0.0229885 0.045977 0.0574713)
(0.0344828 0.0689655 0.091954)
(0.045977 0.091954 0.0804598)
(0.0574713 0.114943 0.091954)
(0.0689655 0.137931 0.103448)
(0.0804598 0.16092 0.0574713)
(0.091954 0.183908 0.045977)
(0.103448 0.206897 0.0229885)
(0.114943 0.229885 0.0229885)
(0.126437 0.252874 0.0229885)
(0.137931 0.275862 0.0114943)
(0.149425 0.298851 0.0229885)
(0.16092 0.321839 0.0344828)
(0.172414 0.344828 0.045977)
(0.367816 0.735632 0.0804598)
)
;

boundaryField
{
    movingWall
    {
        type            calculated;
        value           uniform (0.0229885 0.045977 0);
    }
    fixedWalls
    {
        type            calculated;
        value           uniform (0.0229885 0.045977 0);
    }
    frontAndBack
    {
        type            empty;
    }
}


// ************************************************************************* //
