/*--------------------------------*- C++ -*----------------------------------*\
| =========                 |                                                 |
| \\      /  F ield         | OpenFOAM: The Open Source CFD Toolbox           |
|  \\    /   O peration     | Version:  v2106                                 |
|   \\  /    A nd           | Website:  www.openfoam.com                      |
|    \\/     M anipulation  |                                                 |
\*---------------------------------------------------------------------------*/
FoamFile
{
    version     2.0;
    format      ascii;
    arch        "LSB;label=32;scalar=64";
    class       volVectorField;
    location    "0";
    object      bVV1;
}
// * * * * * * * * * * * * * * * * * * * * * * * * * * * * * * * * * * * * * //

dimensions      [0 1 -1 0 0 0 0];

internalField   nonuniform List<vector> 
16
(
(123 114 10.5)
(124 116 14.5)
(125 118 17.5)
(126 120 16.5)
(127 122 17.5)
(128 124 18.5)
(129 126 14.5)
(130 128 13.5)
(131 130 11.5)
(132 132 11.5)
(133 134 11.5)
(134 136 10.5)
(135 138 11.5)
(136 140 12.5)
(137 142 13.5)
(154 176 16.5)
)
;

boundaryField
{
    movingWall
    {
        type            calculated;
        value           uniform (124 116 9.5);
    }
    fixedWalls
    {
        type            calculated;
        value           uniform (124 116 9.5);
    }
    frontAndBack
    {
        type            empty;
    }
}


// ************************************************************************* //
