/*--------------------------------*- C++ -*----------------------------------*\
| =========                 |                                                 |
| \\      /  F ield         | OpenFOAM: The Open Source CFD Toolbox           |
|  \\    /   O peration     | Version:  v2106                                 |
|   \\  /    A nd           | Website:  www.openfoam.com                      |
|    \\/     M anipulation  |                                                 |
\*---------------------------------------------------------------------------*/
FoamFile
{
    version     2.0;
    format      ascii;
    arch        "LSB;label=32;scalar=64";
    class       volScalarField;
    location    "0";
    object      bVV3;
}
// * * * * * * * * * * * * * * * * * * * * * * * * * * * * * * * * * * * * * //

dimensions      [0 2 -2 0 0 0 0];

internalField   nonuniform List<scalar> 
16
(
355.5
739.5
1114
1450.5
1806
2161.5
2469.5
2806
3133
3479
3825
4161.5
4517
4872.5
5228
11138.5
)
;

boundaryField
{
    movingWall
    {
        type            calculated;
        value           uniform 692;
    }
    fixedWalls
    {
        type            calculated;
        value           uniform 692;
    }
    frontAndBack
    {
        type            empty;
    }
}


// ************************************************************************* //
