/*--------------------------------*- C++ -*----------------------------------*\
  =========                 |
  \\      /  F ield         | OpenFOAM: The Open Source CFD Toolbox
   \\    /   O peration     | Website:  https://openfoam.org
    \\  /    A nd           | Version:  8
     \\/     M anipulation  |
\*---------------------------------------------------------------------------*/
FoamFile
{
    version     2.0;
    format      ascii;
    class       volScalarField;
    object      p;
}
// * * * * * * * * * * * * * * * * * * * * * * * * * * * * * * * * * * * * * //

dimensions      [0 2 -2 0 0 0 0];

internalField  nonuniform List<scalar>
16(
1
2
3
4
5
6
7
8
9
10
11
12
13
14
15
16
);

boundaryField
{
    movingWall
    {
        type            fixedValue;
		value			uniform 18;
    }

    fixedWalls
    {
        type            fixedValue;
		value			uniform 18;
    }

    frontAndBack
    {
        type            empty;
    }
}

// ************************************************************************* //
