/*--------------------------------*- C++ -*----------------------------------*\
  =========                 |
  \\      /  F ield         | OpenFOAM: The Open Source CFD Toolbox
   \\    /   O peration     | Website:  https://openfoam.org
    \\  /    A nd           | Version:  8
     \\/     M anipulation  |
\*---------------------------------------------------------------------------*/
FoamFile
{
    version     2.0;
    format      ascii;
    class       volScalarField;
    object      p;
}
// * * * * * * * * * * * * * * * * * * * * * * * * * * * * * * * * * * * * * //

dimensions      [0 2 -2 0 0 0 0];

internalField  nonuniform List<scalar>
16(
7241
25
324
4724
555
767
724
8445
91242
104
1104
1524
1300
1445
1557
1776
);

boundaryField
{
    movingWall
    {
        type            fixedValue;
		value			uniform 18;
    }

    fixedWalls
    {
        type            fixedValue;
		value			uniform 18;
    }

    frontAndBack
    {
        type            empty;
    }
}

// ************************************************************************* //
