/*--------------------------------*- C++ -*----------------------------------*\
| =========                 |                                                 |
| \\      /  F ield         | OpenFOAM: The Open Source CFD Toolbox           |
|  \\    /   O peration     | Version:  v2106                                 |
|   \\  /    A nd           | Website:  www.openfoam.com                      |
|    \\/     M anipulation  |                                                 |
\*---------------------------------------------------------------------------*/
FoamFile
{
    version     2.0;
    format      ascii;
    arch        "LSB;label=32;scalar=64";
    class       volScalarField;
    location    "0";
    object      SS1;
}
// * * * * * * * * * * * * * * * * * * * * * * * * * * * * * * * * * * * * * //

dimensions      [0 2 -2 0 0 0 0];

internalField   nonuniform List<scalar> 
16
(
7242
27
327
4728
560
773
731
8453
91251
114
1115
1536
1313
1459
1572
1792
)
;

boundaryField
{
    movingWall
    {
        type            calculated;
        value           uniform 36;
    }
    fixedWalls
    {
        type            calculated;
        value           uniform 36;
    }
    frontAndBack
    {
        type            empty;
    }
}


// ************************************************************************* //
