/*--------------------------------*- C++ -*----------------------------------*\
| =========                 |                                                 |
| \\      /  F ield         | OpenFOAM: The Open Source CFD Toolbox           |
|  \\    /   O peration     | Version:  v2106                                 |
|   \\  /    A nd           | Website:  www.openfoam.com                      |
|    \\/     M anipulation  |                                                 |
\*---------------------------------------------------------------------------*/
FoamFile
{
    version     2.0;
    format      ascii;
    arch        "LSB;label=32;scalar=64";
    class       volScalarField;
    location    "0";
    object      SS3;
}
// * * * * * * * * * * * * * * * * * * * * * * * * * * * * * * * * * * * * * //

dimensions      [0 4 -4 0 0 0 0];

internalField   nonuniform List<scalar> 
16
(
7241
50
972
18896
2775
4602
5068
67560
821178
1040
12144
18288
16900
20230
23355
28416
)
;

boundaryField
{
    movingWall
    {
        type            calculated;
        value           uniform 324;
    }
    fixedWalls
    {
        type            calculated;
        value           uniform 324;
    }
    frontAndBack
    {
        type            empty;
    }
}


// ************************************************************************* //
