/*--------------------------------*- C++ -*----------------------------------*\
| =========                 |                                                 |
| \\      /  F ield         | OpenFOAM: The Open Source CFD Toolbox           |
|  \\    /   O peration     | Version:  v2106                                 |
|   \\  /    A nd           | Website:  www.openfoam.com                      |
|    \\/     M anipulation  |                                                 |
\*---------------------------------------------------------------------------*/
FoamFile
{
    version     2.0;
    format      ascii;
    arch        "LSB;label=32;scalar=64";
    class       volScalarField;
    location    "0";
    object      sSS1;
}
// * * * * * * * * * * * * * * * * * * * * * * * * * * * * * * * * * * * * * //

dimensions      [0 2 -2 0 0 0 0];

internalField   nonuniform List<scalar> 
16
(
7246.6
30.6
329.6
4729.6
560.6
772.6
729.6
8450.6
91247.6
109.6
1109.6
1529.6
1305.6
1450.6
1562.6
1781.6
)
;

boundaryField
{
    movingWall
    {
        type            calculated;
        value           uniform 23.6;
    }
    fixedWalls
    {
        type            calculated;
        value           uniform 23.6;
    }
    frontAndBack
    {
        type            empty;
    }
}


// ************************************************************************* //
