/*--------------------------------*- C++ -*----------------------------------*\
| =========                 |                                                 |
| \\      /  F ield         | OpenFOAM: The Open Source CFD Toolbox           |
|  \\    /   O peration     | Version:  v2106                                 |
|   \\  /    A nd           | Website:  www.openfoam.com                      |
|    \\/     M anipulation  |                                                 |
\*---------------------------------------------------------------------------*/
FoamFile
{
    version     2.0;
    format      ascii;
    arch        "LSB;label=32;scalar=64";
    class       volScalarField;
    location    "0";
    object      sSS2;
}
// * * * * * * * * * * * * * * * * * * * * * * * * * * * * * * * * * * * * * //

dimensions      [0 2 -2 0 0 0 0];

internalField   nonuniform List<scalar> 
16
(
-7235.4
-19.4
-318.4
-4718.4
-549.4
-761.4
-718.4
-8439.4
-91236.4
-98.4
-1098.4
-1518.4
-1294.4
-1439.4
-1551.4
-1770.4
)
;

boundaryField
{
    movingWall
    {
        type            calculated;
        value           uniform -12.4;
    }
    fixedWalls
    {
        type            calculated;
        value           uniform -12.4;
    }
    frontAndBack
    {
        type            empty;
    }
}


// ************************************************************************* //
