/*--------------------------------*- C++ -*----------------------------------*\
| =========                 |                                                 |
| \\      /  F ield         | OpenFOAM: The Open Source CFD Toolbox           |
|  \\    /   O peration     | Version:  v2106                                 |
|   \\  /    A nd           | Website:  www.openfoam.com                      |
|    \\/     M anipulation  |                                                 |
\*---------------------------------------------------------------------------*/
FoamFile
{
    version     2.0;
    format      ascii;
    arch        "LSB;label=32;scalar=64";
    class       volScalarField;
    location    "0";
    object      sSS3;
}
// * * * * * * * * * * * * * * * * * * * * * * * * * * * * * * * * * * * * * //

dimensions      [0 4 -4 0 0 0 0];

internalField   nonuniform List<scalar> 
16
(
40549.6
140
1814.4
26454.4
3108
4295.2
4054.4
47292
510955
582.4
6182.4
8534.4
7280
8092
8719.2
9945.6
)
;

boundaryField
{
    movingWall
    {
        type            calculated;
        value           uniform 100.8;
    }
    fixedWalls
    {
        type            calculated;
        value           uniform 100.8;
    }
    frontAndBack
    {
        type            empty;
    }
}


// ************************************************************************* //
