/*--------------------------------*- C++ -*----------------------------------*\
| =========                 |                                                 |
| \\      /  F ield         | OpenFOAM: The Open Source CFD Toolbox           |
|  \\    /   O peration     | Version:  v2106                                 |
|   \\  /    A nd           | Website:  www.openfoam.com                      |
|    \\/     M anipulation  |                                                 |
\*---------------------------------------------------------------------------*/
FoamFile
{
    version     2.0;
    format      ascii;
    arch        "LSB;label=32;scalar=64";
    class       volScalarField;
    location    "0";
    object      sSS4;
}
// * * * * * * * * * * * * * * * * * * * * * * * * * * * * * * * * * * * * * //

dimensions      [0 0 0 0 0 0 0];

internalField   nonuniform List<scalar> 
16
(
0.000773374
0.224
0.017284
0.00118544
0.0100901
0.00730117
0.00773481
0.000663114
6.13752e-05
0.0538462
0.00507246
0.00367454
0.00430769
0.00387543
0.00359666
0.00315315
)
;

boundaryField
{
    movingWall
    {
        type            calculated;
        value           uniform 0.311111;
    }
    fixedWalls
    {
        type            calculated;
        value           uniform 0.311111;
    }
    frontAndBack
    {
        type            empty;
    }
}


// ************************************************************************* //
