/*--------------------------------*- C++ -*----------------------------------*\
| =========                 |                                                 |
| \\      /  F ield         | OpenFOAM: The Open Source CFD Toolbox           |
|  \\    /   O peration     | Version:  v2106                                 |
|   \\  /    A nd           | Website:  www.openfoam.com                      |
|    \\/     M anipulation  |                                                 |
\*---------------------------------------------------------------------------*/
FoamFile
{
    version     2.0;
    format      ascii;
    arch        "LSB;label=32;scalar=64";
    class       volVectorField;
    location    "0";
    object      sSV1;
}
// * * * * * * * * * * * * * * * * * * * * * * * * * * * * * * * * * * * * * //

dimensions      [0 3 -3 0 0 0 0];

internalField   nonuniform List<vector> 
16
(
(5.6 11.2 5.6)
(11.2 22.4 28)
(16.8 33.6 44.8)
(22.4 44.8 39.2)
(28 56 44.8)
(33.6 67.2 50.4)
(39.2 78.4 28)
(44.8 89.6 22.4)
(50.4 100.8 11.2)
(56 112 11.2)
(61.6 123.2 11.2)
(67.2 134.4 5.6)
(72.8 145.6 11.2)
(78.4 156.8 16.8)
(84 168 22.4)
(179.2 358.4 39.2)
)
;

boundaryField
{
    movingWall
    {
        type            calculated;
        value           uniform (11.2 22.4 0);
    }
    fixedWalls
    {
        type            calculated;
        value           uniform (11.2 22.4 0);
    }
    frontAndBack
    {
        type            empty;
    }
}


// ************************************************************************* //
