/*--------------------------------*- C++ -*----------------------------------*\
| =========                 |                                                 |
| \\      /  F ield         | OpenFOAM: The Open Source CFD Toolbox           |
|  \\    /   O peration     | Version:  v2106                                 |
|   \\  /    A nd           | Website:  www.openfoam.com                      |
|    \\/     M anipulation  |                                                 |
\*---------------------------------------------------------------------------*/
FoamFile
{
    version     2.0;
    format      ascii;
    arch        "LSB;label=32;scalar=64";
    class       volTensorField;
    location    "0";
    object      sTS1;
}
// * * * * * * * * * * * * * * * * * * * * * * * * * * * * * * * * * * * * * //

dimensions      [0 3 -3 0 0 0 0];

internalField   nonuniform List<tensor> 
16
(
(1 52 63 44 55 6 87 8 9)
(2 104 126 88 110 12 174 16 18)
(3 156 189 132 165 18 261 24 27)
(4 208 252 176 220 24 348 32 36)
(5 260 315 220 275 30 435 40 45)
(6 312 378 264 330 36 522 48 54)
(7 364 441 308 385 42 609 56 63)
(8 416 504 352 440 48 696 64 72)
(9 468 567 396 495 54 783 72 81)
(10 520 630 440 550 60 870 80 90)
(11 572 693 484 605 66 957 88 99)
(12 624 756 528 660 72 1044 96 108)
(13 676 819 572 715 78 1131 104 117)
(14 728 882 616 770 84 1218 112 126)
(15 780 945 660 825 90 1305 120 135)
(16 832 1008 704 880 96 1392 128 144)
)
;

boundaryField
{
    movingWall
    {
        type            calculated;
        value           uniform (18 936 1134 792 990 108 1566 144 162);
    }
    fixedWalls
    {
        type            calculated;
        value           uniform (18 936 1134 792 990 108 1566 144 162);
    }
    frontAndBack
    {
        type            empty;
    }
}


// ************************************************************************* //
