/*--------------------------------*- C++ -*----------------------------------*\
| =========                 |                                                 |
| \\      /  F ield         | OpenFOAM: The Open Source CFD Toolbox           |
|  \\    /   O peration     | Version:  v2106                                 |
|   \\  /    A nd           | Website:  www.openfoam.com                      |
|    \\/     M anipulation  |                                                 |
\*---------------------------------------------------------------------------*/
FoamFile
{
    version     2.0;
    format      ascii;
    arch        "LSB;label=32;scalar=64";
    class       volTensorField;
    location    "0";
    object      sTT1;
}
// * * * * * * * * * * * * * * * * * * * * * * * * * * * * * * * * * * * * * //

dimensions      [0 1 -1 0 0 0 0];

internalField   nonuniform List<tensor> 
16
(
(2 74 64 48 83 13 91 16 16)
(3 56 113 57 311 8 187 128 11)
(4 58 145 62 71 10 92 18 17)
(5 70 70 132 201 10 97 258 11)
(6 62 111 59 57 7 132 108 17)
(7 214 72 194 75 8 95 24 33)
(73 66 138 49 65 14 100 34 11)
(59 188 67 52 71 10 97 28 33)
(10 70 65 174 75 8 92 18 17)
(171 332 65 52 71 10 88 10 10)
(152 74 65 49 65 54 100 34 61)
(13 76 84 54 57 16 100 234 71)
(14 78 87 53 573 30 600 34 11)
(155 310 98 65 57 17 95 24 13)
(16 402 127 136 73 8 132 18 17)
(33 116 540 129 211 60 88 10 10)
)
;

boundaryField
{
    movingWall
    {
        type            calculated;
        value           uniform (2 54 64 48 63 13 91 16 16);
    }
    fixedWalls
    {
        type            calculated;
        value           uniform (2 54 64 48 63 13 91 16 16);
    }
    frontAndBack
    {
        type            empty;
    }
}


// ************************************************************************* //
