/*--------------------------------*- C++ -*----------------------------------*\
| =========                 |                                                 |
| \\      /  F ield         | OpenFOAM: The Open Source CFD Toolbox           |
|  \\    /   O peration     | Version:  v2106                                 |
|   \\  /    A nd           | Website:  www.openfoam.com                      |
|    \\/     M anipulation  |                                                 |
\*---------------------------------------------------------------------------*/
FoamFile
{
    version     2.0;
    format      ascii;
    arch        "LSB;label=32;scalar=64";
    class       volTensorField;
    location    "0";
    object      sTT2;
}
// * * * * * * * * * * * * * * * * * * * * * * * * * * * * * * * * * * * * * //

dimensions      [0 1 -1 0 0 0 0];

internalField   nonuniform List<tensor> 
16
(
(0 30 62 40 27 -1 83 0 2)
(-1 48 13 31 -201 4 -13 -112 7)
(-2 46 -19 26 39 2 82 -2 1)
(-3 34 56 -44 -91 2 77 -242 7)
(-4 42 15 29 53 5 42 -92 1)
(-5 -110 54 -106 35 4 79 -8 -15)
(-71 38 -12 39 45 -2 74 -18 7)
(-57 -84 59 36 39 2 77 -12 -15)
(-8 34 61 -86 35 4 82 -2 1)
(-169 -228 61 36 39 2 86 6 8)
(-150 30 61 39 45 -42 74 -18 -43)
(-11 28 42 34 53 -4 74 -218 -53)
(-12 26 39 35 -463 -18 -426 -18 7)
(-153 -206 28 23 53 -5 79 -8 5)
(-14 -298 -1 -48 37 4 42 -2 1)
(-31 -12 -414 -41 -101 -48 86 6 8)
)
;

boundaryField
{
    movingWall
    {
        type            calculated;
        value           uniform (0 50 62 40 47 -1 83 0 2);
    }
    fixedWalls
    {
        type            calculated;
        value           uniform (0 50 62 40 47 -1 83 0 2);
    }
    frontAndBack
    {
        type            empty;
    }
}


// ************************************************************************* //
