/*--------------------------------*- C++ -*----------------------------------*\
| =========                 |                                                 |
| \\      /  F ield         | OpenFOAM: The Open Source CFD Toolbox           |
|  \\    /   O peration     | Version:  v2106                                 |
|   \\  /    A nd           | Website:  www.openfoam.com                      |
|    \\/     M anipulation  |                                                 |
\*---------------------------------------------------------------------------*/
FoamFile
{
    version     2.0;
    format      ascii;
    arch        "LSB;label=32;scalar=64";
    class       volScalarField;
    location    "0";
    object      sTT3;
}
// * * * * * * * * * * * * * * * * * * * * * * * * * * * * * * * * * * * * * //

dimensions      [0 2 -2 0 0 0 0];

internalField   nonuniform List<scalar> 
16
(
3441
27702
7764
16195
9112
17749
7700
9884
8490
16224
4286
6690
76764
17735
31364
46167
)
;

boundaryField
{
    movingWall
    {
        type            calculated;
        value           uniform 1301;
    }
    fixedWalls
    {
        type            calculated;
        value           uniform 1301;
    }
    frontAndBack
    {
        type            empty;
    }
}


// ************************************************************************* //
