/*--------------------------------*- C++ -*----------------------------------*\
| =========                 |                                                 |
| \\      /  F ield         | OpenFOAM: The Open Source CFD Toolbox           |
|  \\    /   O peration     | Version:  v2106                                 |
|   \\  /    A nd           | Website:  www.openfoam.com                      |
|    \\/     M anipulation  |                                                 |
\*---------------------------------------------------------------------------*/
FoamFile
{
    version     2.0;
    format      ascii;
    arch        "LSB;label=32;scalar=64";
    class       volTensorField;
    location    "0";
    object      sTT4;
}
// * * * * * * * * * * * * * * * * * * * * * * * * * * * * * * * * * * * * * //

dimensions      [0 2 -2 0 0 0 0];

internalField   nonuniform List<tensor> 
16
(
(461 1982 806 288 2556 471 155 2210 206)
(6978 20876 280 1403 14976 2322 1178 3476 4384)
(1254 1468 794 1152 1204 3876 450 740 7238)
(5210 23360 341 5076 10322 540 1142 4984 659)
(3620 6414 604 1315 1150 2215 960 1786 4256)
(8310 2210 1625 8562 8324 650 1794 14398 1015)
(1151 2172 617 3521 1322 3752 6421 1532 6607)
(1104 2228 1724 3052 6984 540 5200 12140 596)
(7084 1688 610 7576 1952 246 1868 1816 262)
(649 1238 273 7926 13212 314 14863 24506 215)
(1230 2180 5774 6997 1674 3040 13294 2228 1026)
(1351 14366 4447 1156 2522 1846 1241 4138 2465)
(32800 28600 1398 4145 29790 2388 5820 6640 2298)
(1750 1370 859 7979 11558 2169 13638 22606 3169)
(7634 1916 672 5990 16450 2974 2446 30684 5656)
(4515 8302 3348 6089 11408 23964 3473 6834 41940)
)
;

boundaryField
{
    movingWall
    {
        type            calculated;
        value           uniform (461 922 806 288 576 471 155 310 206);
    }
    fixedWalls
    {
        type            calculated;
        value           uniform (461 922 806 288 576 471 155 310 206);
    }
    frontAndBack
    {
        type            empty;
    }
}


// ************************************************************************* //
