/*--------------------------------*- C++ -*----------------------------------*\
| =========                 |                                                 |
| \\      /  F ield         | OpenFOAM: The Open Source CFD Toolbox           |
|  \\    /   O peration     | Version:  v2106                                 |
|   \\  /    A nd           | Website:  www.openfoam.com                      |
|    \\/     M anipulation  |                                                 |
\*---------------------------------------------------------------------------*/
FoamFile
{
    version     2.0;
    format      ascii;
    arch        "LSB;label=32;scalar=64";
    class       volScalarField;
    location    "0";
    object      sVV3;
}
// * * * * * * * * * * * * * * * * * * * * * * * * * * * * * * * * * * * * * //

dimensions      [0 2 -2 0 0 0 0];

internalField   nonuniform List<scalar> 
16
(
6941
3687
4310
10139
18130
17433
34768
12181.2
117386
3810
17496
1749.4
13068
124329
27120
47437
)
;

boundaryField
{
    movingWall
    {
        type            calculated;
        value           uniform 292;
    }
    fixedWalls
    {
        type            calculated;
        value           uniform 292;
    }
    frontAndBack
    {
        type            empty;
    }
}


// ************************************************************************* //
