/*--------------------------------*- C++ -*----------------------------------*\
| =========                 |                                                 |
| \\      /  F ield         | OpenFOAM: The Open Source CFD Toolbox           |
|  \\    /   O peration     | Version:  v2106                                 |
|   \\  /    A nd           | Website:  www.openfoam.com                      |
|    \\/     M anipulation  |                                                 |
\*---------------------------------------------------------------------------*/
FoamFile
{
    version     2.0;
    format      ascii;
    arch        "LSB;label=32;scalar=64";
    class       volTensorField;
    location    "0";
    object      T;
}
// * * * * * * * * * * * * * * * * * * * * * * * * * * * * * * * * * * * * * //

dimensions      [0 1 -1 0 0 0 0];

internalField   nonuniform List<tensor> 
16
(
(1 22 1 4 28 07 4 08 7)
(2 4 50 13 256 2 100 120 2)
(3 6 82 18 16 4 5 10 8)
(4 18 7 88 146 4 10 250 2)
(5 10 48 15 2 1 45 100 8)
(6 162 9 150 20 2 8 16 24)
(72 14 75 5 10 8 13 26 2)
(58 136 4 8 16 4 10 20 24)
(9 18 2 130 20 2 5 10 8)
(170 280 2 8 16 4 1 2 1)
(151 22 2 5 10 48 13 26 52)
(12 24 21 10 2 10 13 226 62)
(13 26 24 9 518 24 513 26 2)
(154 258 35 21 02 11 08 16 4)
(15 350 64 92 18 2 45 10 8)
(32 64 477 85 156 54 1 2 1)
)
;

boundaryField
{
    movingWall
    {
        type            fixedValue;
        value           uniform (1 2 1 4 8 7 4 8 7);
    }
    fixedWalls
    {
        type            fixedValue;
        value           uniform (1 2 1 4 8 7 4 8 7);
    }
    frontAndBack
    {
        type            empty;
    }
}


// ************************************************************************* //
