/*--------------------------------*- C++ -*----------------------------------*\
| =========                 |                                                 |
| \\      /  F ield         | OpenFOAM: The Open Source CFD Toolbox           |
|  \\    /   O peration     | Version:  v2106                                 |
|   \\  /    A nd           | Website:  www.openfoam.com                      |
|    \\/     M anipulation  |                                                 |
\*---------------------------------------------------------------------------*/
FoamFile
{
    version     2.0;
    format      ascii;
    arch        "LSB;label=32;scalar=64";
    class       volTensorField;
    location    "0";
    object      TS1;
}
// * * * * * * * * * * * * * * * * * * * * * * * * * * * * * * * * * * * * * //

dimensions      [0 3 -3 0 0 0 0];

internalField   nonuniform List<tensor> 
16
(
(1 2 1 4 8 7 4 8 7)
(4 8 10 26 52 4 20 40 4)
(9 18 24 24 48 12 15 30 24)
(16 32 28 32 64 16 40 80 8)
(25 50 40 5 10 5 25 50 40)
(36 72 54 60 120 12 48 96 24)
(49 98 35 35 70 56 91 182 14)
(64 128 32 64 128 32 80 160 16)
(81 162 18 90 180 18 45 90 72)
(100 200 20 80 160 40 10 20 10)
(121 242 22 55 110 88 143 286 22)
(144 288 12 12 24 12 156 312 24)
(169 338 26 117 234 26 169 338 26)
(196 392 42 14 28 14 112 224 56)
(225 450 60 135 270 30 75 150 120)
(512 1024 112 128 256 64 16 32 16)
)
;

boundaryField
{
    movingWall
    {
        type            calculated;
        value           uniform (18 36 18 72 144 126 72 144 126);
    }
    fixedWalls
    {
        type            calculated;
        value           uniform (18 36 18 72 144 126 72 144 126);
    }
    frontAndBack
    {
        type            empty;
    }
}


// ************************************************************************* //
