/*--------------------------------*- C++ -*----------------------------------*\
| =========                 |                                                 |
| \\      /  F ield         | OpenFOAM: The Open Source CFD Toolbox           |
|  \\    /   O peration     | Version:  v2106                                 |
|   \\  /    A nd           | Website:  www.openfoam.com                      |
|    \\/     M anipulation  |                                                 |
\*---------------------------------------------------------------------------*/
FoamFile
{
    version     2.0;
    format      ascii;
    arch        "LSB;label=32;scalar=64";
    class       volTensorField;
    location    "0";
    object      TS2;
}
// * * * * * * * * * * * * * * * * * * * * * * * * * * * * * * * * * * * * * //

dimensions      [0 -1 1 0 0 0 0];

internalField   nonuniform List<tensor> 
16
(
(1 2 1 4 8 7 4 8 7)
(1 2 2.5 6.5 13 1 5 10 1)
(1 2 2.66667 2.66667 5.33333 1.33333 1.66667 3.33333 2.66667)
(1 2 1.75 2 4 1 2.5 5 0.5)
(1 2 1.6 0.2 0.4 0.2 1 2 1.6)
(1 2 1.5 1.66667 3.33333 0.333333 1.33333 2.66667 0.666667)
(1 2 0.714286 0.714286 1.42857 1.14286 1.85714 3.71429 0.285714)
(1 2 0.5 1 2 0.5 1.25 2.5 0.25)
(1 2 0.222222 1.11111 2.22222 0.222222 0.555556 1.11111 0.888889)
(1 2 0.2 0.8 1.6 0.4 0.1 0.2 0.1)
(1 2 0.181818 0.454545 0.909091 0.727273 1.18182 2.36364 0.181818)
(1 2 0.0833333 0.0833333 0.166667 0.0833333 1.08333 2.16667 0.166667)
(1 2 0.153846 0.692308 1.38462 0.153846 1 2 0.153846)
(1 2 0.214286 0.0714286 0.142857 0.0714286 0.571429 1.14286 0.285714)
(1 2 0.266667 0.6 1.2 0.133333 0.333333 0.666667 0.533333)
(2 4 0.4375 0.5 1 0.25 0.0625 0.125 0.0625)
)
;

boundaryField
{
    movingWall
    {
        type            calculated;
        value           uniform (0.0555556 0.111111 0.0555556 0.222222 0.444444 0.388889 0.222222 0.444444 0.388889);
    }
    fixedWalls
    {
        type            calculated;
        value           uniform (0.0555556 0.111111 0.0555556 0.222222 0.444444 0.388889 0.222222 0.444444 0.388889);
    }
    frontAndBack
    {
        type            empty;
    }
}


// ************************************************************************* //
