/*--------------------------------*- C++ -*----------------------------------*\
| =========                 |                                                 |
| \\      /  F ield         | OpenFOAM: The Open Source CFD Toolbox           |
|  \\    /   O peration     | Version:  v2106                                 |
|   \\  /    A nd           | Website:  www.openfoam.com                      |
|    \\/     M anipulation  |                                                 |
\*---------------------------------------------------------------------------*/
FoamFile
{
    version     2.0;
    format      ascii;
    arch        "LSB;label=32;scalar=64";
    class       volTensorField;
    location    "0";
    object      TT;
}
// * * * * * * * * * * * * * * * * * * * * * * * * * * * * * * * * * * * * * //

dimensions      [0 1 -1 0 0 0 0];

internalField   nonuniform List<tensor> 
16
(
(1 2 1 4 8 7 4 8 7)
(2 4 5 13 26 2 10 20 2)
(3 6 8 8 16 4 5 10 8)
(4 8 7 8 16 4 10 20 2)
(5 10 8 1 2 1 5 10 8)
(6 12 9 10 20 2 8 16 4)
(7 14 5 5 10 8 13 26 2)
(8 16 4 8 16 4 10 20 2)
(9 18 2 10 20 2 5 10 8)
(10 20 2 8 16 4 1 2 1)
(11 22 2 5 10 8 13 26 2)
(12 24 1 1 2 1 13 26 2)
(13 26 2 9 18 2 13 26 2)
(14 28 3 1 2 1 8 16 4)
(15 30 4 9 18 2 5 10 8)
(32 64 7 8 16 4 1 2 1)
)
;

boundaryField
{
    movingWall
    {
        type            fixedValue;
        value           uniform (1 2 1 4 8 7 4 8 7);
    }
    fixedWalls
    {
        type            fixedValue;
        value           uniform (1 2 1 4 8 7 4 8 7);
    }
    frontAndBack
    {
        type            empty;
    }
}


// ************************************************************************* //
