/*--------------------------------*- C++ -*----------------------------------*\
| =========                 |                                                 |
| \\      /  F ield         | OpenFOAM: The Open Source CFD Toolbox           |
|  \\    /   O peration     | Version:  v2106                                 |
|   \\  /    A nd           | Website:  www.openfoam.com                      |
|    \\/     M anipulation  |                                                 |
\*---------------------------------------------------------------------------*/
FoamFile
{
    version     2.0;
    format      ascii;
    arch        "LSB;label=32;scalar=64";
    class       volTensorField;
    location    "0";
    object      TT1;
}
// * * * * * * * * * * * * * * * * * * * * * * * * * * * * * * * * * * * * * //

dimensions      [0 1 -1 0 0 0 0];

internalField   nonuniform List<tensor> 
16
(
(2 24 2 8 36 14 8 16 14)
(4 8 55 26 282 4 110 140 4)
(6 12 90 26 32 8 10 20 16)
(8 26 14 96 162 8 20 270 4)
(10 20 56 16 4 2 50 110 16)
(12 174 18 160 40 4 16 32 28)
(79 28 80 10 20 16 26 52 4)
(66 152 8 16 32 8 20 40 26)
(18 36 4 140 40 4 10 20 16)
(180 300 4 16 32 8 2 4 2)
(162 44 4 10 20 56 26 52 54)
(24 48 22 11 4 11 26 252 64)
(26 52 26 18 536 26 526 52 4)
(168 286 38 22 4 12 16 32 8)
(30 380 68 101 36 4 50 20 16)
(64 128 484 93 172 58 2 4 2)
)
;

boundaryField
{
    movingWall
    {
        type            calculated;
        value           uniform (2 4 2 8 16 14 8 16 14);
    }
    fixedWalls
    {
        type            calculated;
        value           uniform (2 4 2 8 16 14 8 16 14);
    }
    frontAndBack
    {
        type            empty;
    }
}


// ************************************************************************* //
