/*--------------------------------*- C++ -*----------------------------------*\
| =========                 |                                                 |
| \\      /  F ield         | OpenFOAM: The Open Source CFD Toolbox           |
|  \\    /   O peration     | Version:  v2106                                 |
|   \\  /    A nd           | Website:  www.openfoam.com                      |
|    \\/     M anipulation  |                                                 |
\*---------------------------------------------------------------------------*/
FoamFile
{
    version     2.0;
    format      ascii;
    arch        "LSB;label=32;scalar=64";
    class       volTensorField;
    location    "0";
    object      TT2;
}
// * * * * * * * * * * * * * * * * * * * * * * * * * * * * * * * * * * * * * //

dimensions      [0 1 -1 0 0 0 0];

internalField   nonuniform List<tensor> 
16
(
(0 -20 0 0 -20 0 0 0 0)
(0 0 -45 0 -230 0 -90 -100 0)
(0 0 -74 -10 0 0 0 0 0)
(0 -10 0 -80 -130 0 0 -230 0)
(0 0 -40 -14 0 0 -40 -90 0)
(0 -150 0 -140 0 0 0 0 -20)
(-65 0 -70 0 0 0 0 0 0)
(-50 -120 0 0 0 0 0 0 -22)
(0 0 0 -120 0 0 0 0 0)
(-160 -260 0 0 0 0 0 0 0)
(-140 0 0 0 0 -40 0 0 -50)
(0 0 -20 -9 0 -9 0 -200 -60)
(0 0 -22 0 -500 -22 -500 0 0)
(-140 -230 -32 -20 0 -10 0 0 0)
(0 -320 -60 -83 0 0 -40 0 0)
(0 0 -470 -77 -140 -50 0 0 0)
)
;

boundaryField
{
    movingWall
    {
        type            calculated;
        value           uniform (0 0 0 0 0 0 0 0 0);
    }
    fixedWalls
    {
        type            calculated;
        value           uniform (0 0 0 0 0 0 0 0 0);
    }
    frontAndBack
    {
        type            empty;
    }
}


// ************************************************************************* //
