/*--------------------------------*- C++ -*----------------------------------*\
| =========                 |                                                 |
| \\      /  F ield         | OpenFOAM: The Open Source CFD Toolbox           |
|  \\    /   O peration     | Version:  v2106                                 |
|   \\  /    A nd           | Website:  www.openfoam.com                      |
|    \\/     M anipulation  |                                                 |
\*---------------------------------------------------------------------------*/
FoamFile
{
    version     2.0;
    format      ascii;
    arch        "LSB;label=32;scalar=64";
    class       volScalarField;
    location    "0";
    object      TT3;
}
// * * * * * * * * * * * * * * * * * * * * * * * * * * * * * * * * * * * * * //

dimensions      [0 2 -2 0 0 0 0];

internalField   nonuniform List<scalar> 
16
(
464
10503
1306
8369
1818
4381
2113
3540
2302
7646
3607
6934
17695
9857
12526
11857
)
;

boundaryField
{
    movingWall
    {
        type            calculated;
        value           uniform 264;
    }
    fixedWalls
    {
        type            calculated;
        value           uniform 264;
    }
    frontAndBack
    {
        type            empty;
    }
}


// ************************************************************************* //
