/*--------------------------------*- C++ -*----------------------------------*\
| =========                 |                                                 |
| \\      /  F ield         | OpenFOAM: The Open Source CFD Toolbox           |
|  \\    /   O peration     | Version:  v2106                                 |
|   \\  /    A nd           | Website:  www.openfoam.com                      |
|    \\/     M anipulation  |                                                 |
\*---------------------------------------------------------------------------*/
FoamFile
{
    version     2.0;
    format      ascii;
    arch        "LSB;label=32;scalar=64";
    class       volTensorField;
    location    "0";
    object      TT4;
}
// * * * * * * * * * * * * * * * * * * * * * * * * * * * * * * * * * * * * * //

dimensions      [0 2 -2 0 0 0 0];

internalField   nonuniform List<tensor> 
16
(
(13 86 22 64 368 109 64 368 109)
(556 1632 118 564 6948 706 480 5400 544)
(157 194 334 332 344 752 235 270 514)
(790 2990 74 1480 3480 128 1820 3600 154)
(535 870 314 80 114 58 535 870 314)
(1908 1356 294 3076 2052 178 2480 1680 200)
(639 368 647 514 378 471 1092 494 1187)
(632 1424 192 632 1424 192 760 1720 168)
(2431 542 70 2700 600 76 1385 370 94)
(1862 3124 102 1492 2504 84 187 314 11)
(1797 514 1182 909 418 906 2119 598 1378)
(397 562 554 45 254 103 442 816 657)
(1429 13858 940 1305 9610 652 1429 13858 940)
(2768 3716 810 204 278 61 1600 2160 472)
(3165 5830 1052 1881 3494 628 1355 2010 404)
(6471 12046 18727 1620 3016 4684 203 378 586)
)
;

boundaryField
{
    movingWall
    {
        type            calculated;
        value           uniform (13 26 22 64 128 109 64 128 109);
    }
    fixedWalls
    {
        type            calculated;
        value           uniform (13 26 22 64 128 109 64 128 109);
    }
    frontAndBack
    {
        type            empty;
    }
}


// ************************************************************************* //
