/*--------------------------------*- C++ -*----------------------------------*\
  =========                 |
  \\      /  F ield         | OpenFOAM: The Open Source CFD Toolbox
   \\    /   O peration     | Website:  https://openfoam.org
    \\  /    A nd           | Version:  8
     \\/     M anipulation  |
\*---------------------------------------------------------------------------*/
FoamFile
{
    version     2.0;
    format      ascii;
    class       volVectorField;
    object      U;
}
// * * * * * * * * * * * * * * * * * * * * * * * * * * * * * * * * * * * * * //

dimensions      [0 1 -1 0 0 0 0];

internalField  nonuniform List<vector>
16
(
(1 2 1)
(2 4 5)
(3 6 8)
(4 8 7)
(5 10 8)
(6 12 9)
(7 14 5)
(8 16 4)
(9 18 2)
(10 20 2)
(11 22 2)
(12 24 1)
(13 26 2)
(14 28 3)
(15 30 4)
(32 64 7)
);

boundaryField
{
    movingWall
    {
        type            fixedValue;
        value           uniform (2 4 0);
    }

    fixedWalls
    {
        type            fixedValue;
        value           uniform (2 4 0);
    }

    frontAndBack
    {
        type            empty;
    }
}

// ************************************************************************* //
