/*--------------------------------*- C++ -*----------------------------------*\
  =========                 |
  \\      /  F ield         | OpenFOAM: The Open Source CFD Toolbox
   \\    /   O peration     | Website:  https://openfoam.org
    \\  /    A nd           | Version:  8
     \\/     M anipulation  |
\*---------------------------------------------------------------------------*/
FoamFile
{
    version     2.0;
    format      ascii;
    class       volVectorField;
    object      U;
}
// * * * * * * * * * * * * * * * * * * * * * * * * * * * * * * * * * * * * * //

dimensions      [0 1 -1 0 0 0 0];

internalField  nonuniform List<vector>
16
(
(51 52 1)
(22 44 5)
(23 62 8)
(34 48 57)
(115 120 28)
(62 102 91)
(70 1774 52)
(81 1.6 24)
(950 108 2)
(10 200 2)
(121 212 2)
(11.2 24 1)
(103 26 2)
(1014 28 3)
(115 30 134)
(322 624 7)
);

boundaryField
{
    movingWall
    {
        type            fixedValue;
        value           uniform (2 4 0);
    }

    fixedWalls
    {
        type            fixedValue;
        value           uniform (2 4 0);
    }

    frontAndBack
    {
        type            empty;
    }
}

// ************************************************************************* //
