/*--------------------------------*- C++ -*----------------------------------*\
| =========                 |                                                 |
| \\      /  F ield         | OpenFOAM: The Open Source CFD Toolbox           |
|  \\    /   O peration     | Version:  v2106                                 |
|   \\  /    A nd           | Website:  www.openfoam.com                      |
|    \\/     M anipulation  |                                                 |
\*---------------------------------------------------------------------------*/
FoamFile
{
    version     2.0;
    format      ascii;
    arch        "LSB;label=32;scalar=64";
    class       volScalarField;
    location    "0";
    object      VV3;
}
// * * * * * * * * * * * * * * * * * * * * * * * * * * * * * * * * * * * * * //

dimensions      [0 2 -2 0 0 0 0];

internalField   nonuniform List<scalar> 
16
(
156
245
505
919
1999
2415
25586
769.6
10498
4104
5999
711.4
2019
14989
3161
50289
)
;

boundaryField
{
    movingWall
    {
        type            calculated;
        value           uniform 20;
    }
    fixedWalls
    {
        type            calculated;
        value           uniform 20;
    }
    frontAndBack
    {
        type            empty;
    }
}


// ************************************************************************* //
